[Molden Format]
[Title]
generated by GANSU
[Atoms] (Angs)
C 1 6 0 0.476 0
C 2 6 -0.944 -0.736 0
O 3 8 1.215 0.399 0
H 4 1 -0.515 1.452 0
H 5 1 -0.375 -1.661 0
H 6 1 -1.581 -0.709 0.88
H 7 1 -1.581 -0.709 -0.88
[GTO]
1 0
 s 3 1.00
    13.0451 0.535328
    3.53051 0.444635
    71.6168 0.154329
 s 3 1.00
    2.94125 -0.0999672
    0.683483 0.399513
    0.22229 0.700115
 p 3 1.00
    2.94125 0.155916
    0.683483 0.607684
    0.22229 0.391957

2 0
 s 3 1.00
    71.6168 0.154329
    13.0451 0.535328
    3.53051 0.444635
 s 3 1.00
    2.94125 -0.0999672
    0.683483 0.399513
    0.22229 0.700115
 p 3 1.00
    0.22229 0.391957
    0.683483 0.607684
    2.94125 0.155916

3 0
 s 3 1.00
    23.8089 0.535328
    6.44361 0.444635
    130.709 0.154329
 s 3 1.00
    5.03315 -0.0999672
    1.1696 0.399513
    0.380389 0.700115
 p 3 1.00
    0.380389 0.391957
    1.1696 0.607684
    5.03315 0.155916

4 0
 s 3 1.00
    3.42525 0.154329
    0.623914 0.535328
    0.168855 0.444635

5 0
 s 3 1.00
    0.168855 0.444635
    0.623914 0.535328
    3.42525 0.154329

6 0
 s 3 1.00
    0.168855 0.444635
    0.623914 0.535328
    3.42525 0.154329

7 0
 s 3 1.00
    0.168855 0.444635
    0.623914 0.535328
    3.42525 0.154329

[MO]
Sym= A
Ene= -20.2909
Spin= Alpha
Occup= 2
 1 -0.00053372494039440033
 2 0.0072266995601470742
 3 0.0054148127848894041
 4 -0.00038244253917117145
 5 -2.7225898100781225e-16
 6 2.481372079644151e-05
 7 -0.00025501774113514714
 8 -0.00040479771670814545
 9 0.00017729849219508387
 10 -6.3455009618056622e-17
 11 -0.9942741843631796
 12 -0.02600772474284517
 13 0.0042031202631834259
 14 -0.00026014083999028475
 15 -2.0466568589650299e-16
 16 -0.00021156078805395492
 17 0.00019872543559906999
 18 -2.977947912620193e-05
 19 -2.9779479125647425e-05
Sym= A
Ene= -11.122337507164401
Spin= Alpha
Occup= 2
 1 -0.99261598698950715
 2 -0.032651274757432243
 3 -0.00048210379006050801
 4 -8.2868150250505119e-05
 5 1.4625378238948206e-17
 6 0.0017786828785600112
 7 0.0052276443914610043
 8 0.0022774534137374449
 9 0.00257155023953007
 10 1.0259463529192143e-16
 11 -0.00013730962258646817
 12 0.0057609853416403867
 13 -0.0012348391696140276
 14 7.403535946720995e-05
 15 -1.4311518244652027e-17
 16 0.0065718746928065085
 17 5.050771795176518e-05
 18 0.00010875488954136793
 19 0.00010875488954159797
Sym= A
Ene= -11.054405466364527
Spin= Alpha
Occup= 2
 1 -0.0027596111614294231
 2 0.0056370635996445401
 3 -0.0021745015096874239
 4 -0.0029501279185814924
 5 -1.063740118957203e-15
 6 -0.99192306127975483
 7 -0.037926721847501954
 8 0.00019240146782868503
 9 8.7849279780256043e-05
 10 -4.807381910330762e-16
 11 2.2535912607482528e-05
 12 -0.00022797795313703176
 13 9.6615292667027165e-05
 14 0.00016373769987439234
 15 -2.9751305094841095e-16
 16 -2.2792457000152769e-05
 17 0.0069939975325415205
 18 0.0070357424362302214
 19 0.0070357424362303619
Sym= A
Ene= -1.3282604880744657
Spin= Alpha
Occup= 2
 1 -0.12473899323122904
 2 0.2843393251506085
 3 0.13348071285330307
 4 -0.010402001270662686
 5 1.8412040134958616e-15
 6 -0.01901665839034828
 7 0.048334110307226653
 8 0.014360438243074907
 9 0.016539716249373389
 10 8.0262207101245782e-17
 11 -0.21744647170978876
 12 0.76065195173357303
 13 -0.12609997082488231
 14 0.0072803641033639278
 15 -2.505163706313447e-16
 16 0.032825225006422806
 17 0.0079534020665363286
 18 0.0049514755085361059
 19 0.0049514755085349974
Sym= A
Ene= -0.95922571472795792
Spin= Alpha
Occup= 2
 1 0.084367547622790501
 2 -0.24195778876913548
 3 0.13334094126916299
 4 0.071094833957444592
 5 1.7031611933894628e-15
 6 0.2054435898687984
 7 -0.57890849108254627
 8 -0.0090698031408105312
 9 -0.026416449885356179
 10 -5.4510249456345184e-16
 11 -0.05752759259920448
 12 0.22840104298907057
 13 0.020869433650559779
 14 0.019780182092230536
 15 -1.9209348638687858e-16
 16 -0.068878909512766318
 17 -0.14736961329583917
 18 -0.15804183092477503
 19 -0.15804183092477456
Sym= A
Ene= -0.74656714281089098
Spin= Alpha
Occup= 2
 1 0.1580854117847518
 2 -0.51001372670571343
 3 0.12479253849608132
 4 -0.16986476497547576
 5 9.3431002941297802e-16
 6 -0.072508093321468681
 7 0.22445521395175741
 8 -0.060193294183116523
 9 -0.1586279330823761
 10 1.9588138507909897e-15
 11 -0.082037179238952693
 12 0.36661997121131673
 13 0.13052045083399544
 14 -0.083953503671656937
 15 2.4103546194057217e-15
 16 -0.3294474572220602
 17 0.15917763373681554
 18 0.10115755984878329
 19 0.10115755984878438
Sym= A
Ene= -0.60692782408619994
Spin= Alpha
Occup= 2
 1 0.053943903230312402
 2 -0.18781450976495528
 3 -0.060677533079113506
 4 0.34453635208959549
 5 1.5963172973275325e-15
 6 -0.016575210859335551
 7 0.054057608360966507
 8 -0.30971922521013073
 9 -0.048150340537973915
 10 -1.212747354661668e-14
 11 -0.053903386461762036
 12 0.26678479311870329
 13 0.20111751344910417
 14 0.26503163950777731
 15 -1.2506552275404821e-14
 16 0.18920967014286416
 17 -0.091782080566008659
 18 0.1931718595400912
 19 0.19317185954003774
Sym= A
Ene= -0.56029450447358953
Spin= Alpha
Occup= 2
 1 6.3478752812354905e-16
 2 -2.6506988088577322e-15
 3 6.0721571726626802e-15
 4 1.0484181243161357e-14
 5 -0.20763477386599857
 6 -2.812593815336852e-16
 7 6.6128529658782683e-16
 8 -1.9997097476879764e-15
 9 -1.3643845697762361e-14
 10 -0.45493275730889837
 11 7.1892245713110833e-16
 12 -3.8803732009285475e-15
 13 -6.0901111056689009e-15
 14 8.7931429631083441e-15
 15 -0.13664967721538923
 16 3.5260558928634502e-15
 17 1.1115818444693932e-14
 18 -0.37703686245696699
 19 0.37703686245696938
Sym= A
Ene= -0.54293667584856675
Spin= Alpha
Occup= 2
 1 0.0064592714760239745
 2 -0.011272862358898003
 3 -0.26711452516637374
 4 -0.20417335466395686
 5 -4.9940991036501365e-15
 6 0.0042408805109418477
 7 -0.016029254177172936
 8 -0.066787787834286544
 9 0.36396321115177882
 10 -1.5946859959022167e-14
 11 -0.059549830351805957
 12 0.31599134263851086
 13 0.27195657300003323
 14 -0.22650556977410527
 15 2.1870040945138407e-15
 16 -0.040158082851681133
 17 -0.35466970183553842
 18 0.045300383592119749
 19 0.045300383592143861
Sym= A
Ene= -0.50168143423157097
Spin= Alpha
Occup= 2
 1 -0.011572286363759971
 2 0.03216816330026763
 3 0.27605972392716671
 4 -0.083188050832430027
 5 -1.3107036859252677e-15
 6 0.002619439755227188
 7 -0.00810679097999795
 8 -0.31757743145186823
 9 0.14972041506414946
 10 6.8086983921347884e-16
 11 0.05436416291079324
 12 -0.29901204618518257
 13 -0.36842459898443625
 14 -0.014628117699951277
 15 -4.7557581475953438e-15
 16 -0.20859689984987156
 17 -0.33448889397263742
 18 0.20763285316811214
 19 0.20763285316811203
Sym= A
Ene= -0.41555243288600457
Spin= Alpha
Occup= 2
 1 1.1782132287570631e-16
 2 4.2571429260554144e-16
 3 4.3047192894436767e-15
 4 6.0950360881100696e-15
 5 0.46970678743639721
 6 -6.8923310804713913e-16
 7 2.208515139136753e-15
 8 -5.4332837349827207e-15
 9 -1.0149665545484732e-15
 10 -0.17605771692595795
 11 3.7922441376580367e-16
 12 -2.7346268256726958e-15
 13 1.6607683814220199e-15
 14 1.2278931180507675e-14
 15 0.49460104918304687
 16 1.2375802282607882e-15
 17 -2.8108537565234443e-15
 18 -0.19648585460750956
 19 0.1964858546075188
Sym= A
Ene= -0.33674892595410022
Spin= Alpha
Occup= 2
 1 -0.0049265450669056859
 2 0.029221950851816132
 3 -0.026553211574691461
 4 -0.16232840074297389
 5 -2.011630227174424e-15
 6 -0.036734156347319996
 7 0.16335424517480251
 8 0.18448644224223965
 9 0.23295512278225233
 10 1.2462909818738509e-15
 11 -0.0011584608832478798
 12 0.0085879541896005211
 13 0.046025003794220407
 14 0.63046934224242224
 15 -4.9881098813030244e-15
 16 -0.35581393094343949
 17 -0.080429201241971629
 18 -0.065711630789557995
 19 -0.065711630789558148
Sym= A
Ene= 0.29110590804197378
Spin= Alpha
Occup= 0
 1 1.0816763295356298e-16
 2 -8.2184707305218081e-16
 3 2.4905345386984851e-15
 4 9.8879335170598411e-16
 5 -0.69297681452357496
 6 2.6896378131114884e-16
 7 -5.4617048651644297e-16
 8 -2.0433997428858406e-15
 9 -1.6552041141664103e-15
 10 -0.049021366362942249
 11 -1.6250632288961372e-16
 12 -1.7575845114477986e-16
 13 -1.1102572708578418e-15
 14 3.5991973034689049e-15
 15 0.55943435263412877
 16 2.3488426619749283e-15
 17 -1.0868025757551169e-15
 18 0.19015989612192694
 19 -0.19015989612192502
Sym= A
Ene= 0.6194449377888247
Spin= Alpha
Occup= 0
 1 -0.1907713480006191
 2 1.1581799044698684
 3 -0.40903446286894246
 4 0.027157837930903851
 5 -7.147146364551387e-17
 6 0.065164072245593271
 7 -0.36070504702553935
 8 -0.57284479163062085
 9 -0.34385910484108306
 10 -3.3627527145961734e-15
 11 0.019395142961516693
 12 -0.10422497240884657
 13 0.12379818505557959
 14 -0.004737852416379469
 15 -1.2514046796845202e-16
 16 -0.85274505459119054
 17 0.2306598450509863
 18 -0.20092952610526232
 19 -0.20092952610526901
Sym= A
Ene= 0.66101402820052857
Spin= Alpha
Occup= 0
 1 -0.072894994971656524
 2 0.43850036280383153
 3 0.073449757347839054
 4 -0.45825078434555772
 5 -2.3872948225262759e-14
 6 0.046748181196337897
 7 -0.26785550284997695
 8 0.29910667013354053
 9 -0.76712137435888272
 10 1.1347405998844631e-13
 11 0.033337800762626428
 12 -0.22934378457294738
 13 0.2244750675379952
 14 0.10557805955426208
 15 7.7634594149347607e-15
 16 0.25087158017849159
 17 -0.8355745515422357
 18 0.36541654388068939
 19 0.36541654388089018
Sym= A
Ene= 0.70997222690948747
Spin= Alpha
Occup= 0
 1 9.5179191070853538e-15
 2 -5.6624516759337707e-14
 3 -2.0444703849864536e-14
 4 4.4480359137439432e-14
 5 -0.19662285894482753
 6 4.0071115506944239e-16
 7 -8.2503331814829649e-15
 8 -5.0501335733646024e-14
 9 9.333275191748144e-14
 10 0.94961309007671546
 11 -5.7837712232009746e-15
 12 3.9047162833779442e-14
 13 -2.6582742921353891e-14
 14 -1.6464324726383352e-15
 15 0.073071924767328988
 16 -1.4248084906468098e-14
 17 1.2138642484765436e-13
 18 -0.84471237032093505
 19 0.84471237032088009
Sym= A
Ene= 0.73027227969122088
Spin= Alpha
Occup= 0
 1 0.052703828738070793
 2 -0.33485089190123596
 3 -0.036839845306234374
 4 -0.269588590474584
 5 -1.707462873343809e-15
 6 -0.18806818100042444
 7 1.2098055103867149
 8 -0.45554048042783146
 9 -0.28437773536012412
 10 1.0508870239226019e-14
 11 -0.019553484394641118
 12 0.13064671872813091
 13 -0.11289978365837236
 14 0.061954338063070574
 15 6.4700641294159949e-16
 16 0.40911062204393833
 17 -0.51019644899102989
 18 -0.77664916951168994
 19 -0.77664916951167029
Sym= A
Ene= 0.75720101519042327
Spin= Alpha
Occup= 0
 1 -0.031573389360608689
 2 0.23266168793705735
 3 0.16998211046685996
 4 0.80969652148987448
 5 -6.6296449504196709e-15
 6 -0.14566390365463611
 7 0.92632243415582827
 8 0.44290828076040106
 9 -0.088572335251329307
 10 2.5263560717603072e-14
 11 0.019994205982464233
 12 -0.14138134326315954
 13 0.12005522864504516
 14 -0.21020965832475602
 15 2.3336938683976909e-15
 16 -0.71463342484736914
 17 -0.7023430964235049
 18 -0.1044431149218725
 19 -0.1044431149218274
Sym= A
Ene= 0.96982630793699642
Spin= Alpha
Occup= 0
 1 -0.083232539870911254
 2 0.56599597092219467
 3 0.98126163353489526
 4 -0.13399661658027617
 5 -1.5367489133231571e-16
 6 -0.02005574811190862
 7 0.14305505418907849
 8 -0.27142208296602172
 9 0.29800633471317189
 10 4.4039726439697587e-15
 11 0.10934776868346618
 12 -0.82224645987715106
 13 0.6452592151825628
 14 -0.029459593987973397
 15 -9.4154601984527974e-16
 16 0.20245284037238723
 17 0.26807431191982617
 18 -0.18313277846308471
 19 -0.18313277846307707
