[Molden Format]
[Title]
generated by GANSU
[Atoms] (Angs)
N 1 7 0 0 0.128
H 2 1 0 0.941 -0.298
H 3 1 0.815 -0.47 -0.298
H 4 1 -0.815 -0.47 -0.298
[GTO]
1 0
 s 3 1.00
    18.0523 0.535328
    4.88566 0.444635
    99.1062 0.154329
 s 3 1.00
    3.78046 -0.0999672
    0.878497 0.399513
    0.285714 0.700115
 p 3 1.00
    0.285714 0.391957
    0.878497 0.607684
    3.78046 0.155916

2 0
 s 3 1.00
    3.42525 0.154329
    0.168855 0.444635
    0.623914 0.535328

3 0
 s 3 1.00
    3.42525 0.154329
    0.623914 0.535328
    0.168855 0.444635

4 0
 s 3 1.00
    3.42525 0.154329
    0.623914 0.535328
    0.168855 0.444635

[MO]
Sym= A
Ene= -15.3128
Spin= Alpha
Occup= 2
 1 -0.99345252428301589
 2 -0.031324724134637903
 3 -2.3366272894613487e-17
 4 -1.0268923227243366e-06
 5 0.0041570490862532115
 6 0.0064603468717436482
 7 0.0064625559939888461
 8 0.0064625559939888314
Sym= A
Ene= -1.0865040266696133
Spin= Alpha
Occup= 2
 1 -0.21893336077551609
 2 0.73985196829276734
 3 6.7896899111224226e-16
 4 2.2350412981311655e-05
 5 -0.11303426793192674
 6 0.15902781869004884
 7 0.15907716947724684
 8 0.15907716947724629
Sym= A
Ene= -0.56151552207790401
Spin= Alpha
Occup= 2
 1 -1.3777315963942959e-16
 2 3.1509844419350482e-16
 3 -0.47521519995270101
 4 8.7176875130867457e-13
 5 7.6867779082259152e-16
 6 9.1996074642463406e-13
 7 -0.43390777450074491
 8 0.43390777449982654
Sym= A
Ene= -0.56129382543162121
Spin= Alpha
Occup= 2
 1 2.6927931595470181e-05
 2 -9.9643056921966579e-05
 3 8.7172038680148946e-13
 4 0.47530013700885043
 5 2.4402405424008982e-05
 6 0.50115720220772952
 7 -0.25049125595272004
 8 -0.25049125595431215
Sym= A
Ene= -0.35845455858466424
Spin= Alpha
Occup= 2
 1 0.095872674118169132
 2 -0.48181165827820688
 3 -3.7059291216502534e-16
 4 -8.5138061172554871e-07
 5 -0.69738014625746114
 6 0.13817961075811416
 7 0.13826704179826071
 8 0.13826704179826163
Sym= A
Ene= 0.62465084440588536
Spin= Alpha
Occup= 0
 1 0.17993703557254281
 2 -1.2108070515895506
 3 8.0407196714410969e-15
 4 -0.00025510705013449716
 5 0.49076432546020804
 6 0.70090984872813544
 7 0.70100133450493862
 8 0.70100133450495472
Sym= A
Ene= 0.69977460003716896
Spin= Alpha
Occup= 0
 1 -3.0095779860928574e-05
 2 0.00027706707473529709
 3 2.0636005325992371e-14
 4 -0.82748532290832799
 5 -0.00013160948617743545
 6 0.97500496079454912
 7 -0.48763652486687586
 8 -0.48763652486683418
Sym= A
Ene= 0.70012625916818538
Spin= Alpha
Occup= 0
 1 1.5920615711178717e-15
 2 -1.2027119349714719e-14
 3 -0.82776587105083188
 4 -2.0330990322079307e-14
 5 4.9866859213821558e-15
 6 3.1015264756831938e-14
 7 0.84455691520079079
 8 -0.84455691520080067
