[Molden Format]
[Title]
generated by GANSU
[Atoms] (Angs)
C 1 6 0 2.49 1.403
C 2 6 0 3.645 0.722
C 3 6 0 3.645 -0.722
C 4 6 0 2.49 -1.403
C 5 6 0 -2.49 -1.403
C 6 6 0 -3.645 -0.722
C 7 6 0 -3.645 0.722
C 8 6 0 -2.49 1.403
C 9 6 0 0 1.394
C 10 6 0 0 -1.394
C 11 6 0 1.215 0.712
C 12 6 0 1.215 -0.712
C 13 6 0 -1.215 -0.712
C 14 6 0 -1.215 0.712
H 15 1 0 2.482 2.486
H 16 1 0 4.595 1.241
H 17 1 0 4.595 -1.241
H 18 1 0 2.482 -2.486
H 19 1 0 -2.482 -2.486
H 20 1 0 -4.595 -1.241
H 21 1 0 -4.595 1.241
H 22 1 0 -2.482 2.486
H 23 1 0 0 2.477
H 24 1 0 0 -2.477
[GTO]
1 0
 s 3 1.00
    13.0451 0.535328
    3.53051 0.444635
    71.6168 0.154329
 s 3 1.00
    2.94125 -0.0999672
    0.683483 0.399513
    0.22229 0.700115
 p 3 1.00
    2.94125 0.155916
    0.683483 0.607684
    0.22229 0.391957

2 0
 s 3 1.00
    71.6168 0.154329
    3.53051 0.444635
    13.0451 0.535328
 s 3 1.00
    2.94125 -0.0999672
    0.683483 0.399513
    0.22229 0.700115
 p 3 1.00
    2.94125 0.155916
    0.683483 0.607684
    0.22229 0.391957

3 0
 s 3 1.00
    3.53051 0.444635
    13.0451 0.535328
    71.6168 0.154329
 s 3 1.00
    2.94125 -0.0999672
    0.683483 0.399513
    0.22229 0.700115
 p 3 1.00
    2.94125 0.155916
    0.683483 0.607684
    0.22229 0.391957

4 0
 s 3 1.00
    71.6168 0.154329
    13.0451 0.535328
    3.53051 0.444635
 s 3 1.00
    0.22229 0.700115
    0.683483 0.399513
    2.94125 -0.0999672
 p 3 1.00
    2.94125 0.155916
    0.22229 0.391957
    0.683483 0.607684

5 0
 s 3 1.00
    3.53051 0.444635
    13.0451 0.535328
    71.6168 0.154329
 s 3 1.00
    0.22229 0.700115
    0.683483 0.399513
    2.94125 -0.0999672
 p 3 1.00
    2.94125 0.155916
    0.683483 0.607684
    0.22229 0.391957

6 0
 s 3 1.00
    3.53051 0.444635
    13.0451 0.535328
    71.6168 0.154329
 s 3 1.00
    2.94125 -0.0999672
    0.683483 0.399513
    0.22229 0.700115
 p 3 1.00
    2.94125 0.155916
    0.683483 0.607684
    0.22229 0.391957

7 0
 s 3 1.00
    3.53051 0.444635
    13.0451 0.535328
    71.6168 0.154329
 s 3 1.00
    0.22229 0.700115
    0.683483 0.399513
    2.94125 -0.0999672
 p 3 1.00
    0.22229 0.391957
    2.94125 0.155916
    0.683483 0.607684

8 0
 s 3 1.00
    3.53051 0.444635
    13.0451 0.535328
    71.6168 0.154329
 s 3 1.00
    0.22229 0.700115
    0.683483 0.399513
    2.94125 -0.0999672
 p 3 1.00
    2.94125 0.155916
    0.683483 0.607684
    0.22229 0.391957

9 0
 s 3 1.00
    3.53051 0.444635
    13.0451 0.535328
    71.6168 0.154329
 s 3 1.00
    0.22229 0.700115
    2.94125 -0.0999672
    0.683483 0.399513
 p 3 1.00
    2.94125 0.155916
    0.683483 0.607684
    0.22229 0.391957

10 0
 s 3 1.00
    3.53051 0.444635
    13.0451 0.535328
    71.6168 0.154329
 s 3 1.00
    0.22229 0.700115
    0.683483 0.399513
    2.94125 -0.0999672
 p 3 1.00
    0.22229 0.391957
    0.683483 0.607684
    2.94125 0.155916

11 0
 s 3 1.00
    71.6168 0.154329
    3.53051 0.444635
    13.0451 0.535328
 s 3 1.00
    0.22229 0.700115
    0.683483 0.399513
    2.94125 -0.0999672
 p 3 1.00
    2.94125 0.155916
    0.683483 0.607684
    0.22229 0.391957

12 0
 s 3 1.00
    71.6168 0.154329
    13.0451 0.535328
    3.53051 0.444635
 s 3 1.00
    0.683483 0.399513
    0.22229 0.700115
    2.94125 -0.0999672
 p 3 1.00
    0.22229 0.391957
    2.94125 0.155916
    0.683483 0.607684

13 0
 s 3 1.00
    71.6168 0.154329
    13.0451 0.535328
    3.53051 0.444635
 s 3 1.00
    0.22229 0.700115
    2.94125 -0.0999672
    0.683483 0.399513
 p 3 1.00
    0.683483 0.607684
    2.94125 0.155916
    0.22229 0.391957

14 0
 s 3 1.00
    3.53051 0.444635
    13.0451 0.535328
    71.6168 0.154329
 s 3 1.00
    0.22229 0.700115
    0.683483 0.399513
    2.94125 -0.0999672
 p 3 1.00
    2.94125 0.155916
    0.683483 0.607684
    0.22229 0.391957

15 0
 s 3 1.00
    3.42525 0.154329
    0.623914 0.535328
    0.168855 0.444635

16 0
 s 3 1.00
    0.168855 0.444635
    0.623914 0.535328
    3.42525 0.154329

17 0
 s 3 1.00
    3.42525 0.154329
    0.623914 0.535328
    0.168855 0.444635

18 0
 s 3 1.00
    3.42525 0.154329
    0.623914 0.535328
    0.168855 0.444635

19 0
 s 3 1.00
    0.168855 0.444635
    0.623914 0.535328
    3.42525 0.154329

20 0
 s 3 1.00
    0.623914 0.535328
    3.42525 0.154329
    0.168855 0.444635

21 0
 s 3 1.00
    0.168855 0.444635
    0.623914 0.535328
    3.42525 0.154329

22 0
 s 3 1.00
    0.168855 0.444635
    0.623914 0.535328
    3.42525 0.154329

23 0
 s 3 1.00
    0.623914 0.535328
    3.42525 0.154329
    0.168855 0.444635

24 0
 s 3 1.00
    0.168855 0.444635
    3.42525 0.154329
    0.623914 0.535328

[MO]
Sym= A
Ene= -11.0393
Spin= Alpha
Occup= 2
 1 0.0019204720876524329
 2 0.0031467037471090715
 3 -1.0146148869274837e-17
 4 -0.0015791528704829812
 5 -0.00088086485227020089
 6 0.0030302611110166622
 7 1.1310696088867589e-05
 8 -9.761295346419622e-17
 9 -4.0996759764605137e-05
 10 -3.5418213367457985e-05
 11 0.0030302611055984118
 12 1.1310694264866569e-05
 13 -3.8302622310775094e-18
 14 -4.0996758921543405e-05
 15 3.5418212913007271e-05
 16 0.0019204720847171438
 17 0.0031467037782020452
 18 -3.7680557818525037e-17
 19 -0.0015791528856524649
 20 0.00088086486051046874
 21 -0.0019204767703079814
 22 -0.0031467096827135083
 23 6.672420382048377e-17
 24 -0.0015791558680327937
 25 -0.00088086646610393594
 26 -0.0030302665287836694
 27 -1.1310719866033589e-05
 28 2.9557667804148144e-16
 29 -4.0996833787677531e-05
 30 -3.541826982613773e-05
 31 -0.0030302665335455031
 32 -1.1310721806532566e-05
 33 3.2088986943540283e-17
 34 -4.0996834705134613e-05
 35 3.5418270320270243e-05
 36 -0.0019204767729990358
 37 -0.0031467096486694143
 38 -9.3570838998735714e-17
 39 -0.0015791558514088241
 40 0.00088086645710536322
 41 8.0939603390931415e-09
 42 -5.9619703141405264e-09
 43 -5.6560115553246573e-17
 44 0.0032748791753258732
 45 1.7102822178530035e-09
 46 8.0999330832867528e-09
 47 -5.9650042099371842e-09
 48 -3.4298318179427167e-17
 49 0.0032748792081420258
 50 -1.7111038366174473e-09
 51 -0.49623638065237435
 52 -0.014774137345954744
 53 1.6545940560122399e-16
 54 0.00022370080033878859
 55 -0.0017534794927821715
 56 -0.49623638524629565
 57 -0.014774137545812527
 58 -2.7596008396628292e-16
 59 0.00022370080158067192
 60 0.0017534794747163449
 61 0.49623727691321273
 62 0.014774164281628713
 63 1.4093807531696286e-16
 64 0.00022370093401294887
 65 -0.0017534828380564582
 66 0.49623727188679712
 67 0.014774164062728037
 68 1.1869862538280835e-16
 69 0.00022370093254554628
 70 0.0017534828578743694
 71 -1.1883538214556115e-05
 72 3.8134758147042973e-05
 73 3.8134758246141653e-05
 74 -1.1883538952648862e-05
 75 1.1883557973271612e-05
 76 -3.8134825239405888e-05
 77 -3.8134825139909956e-05
 78 1.1883557173271789e-05
 79 -5.6390191025006923e-11
 80 -5.635878161419948e-11
Sym= A
Ene= -11.039233219389727
Spin= Alpha
Occup= 2
 1 -0.0026294183099088691
 2 -0.0032864787526048524
 3 -8.6105203518165264e-17
 4 0.0016599786604785047
 5 0.00089349707802295966
 6 -0.0030687400794909645
 7 -1.5639640511021409e-05
 8 1.712482790556848e-17
 9 4.1683095652989693e-05
 10 3.1542644972976791e-05
 11 -0.0030687400595334987
 12 -1.5639630959372874e-05
 13 -1.257527004837677e-16
 14 4.1683091103448394e-05
 15 -3.1542642298435647e-05
 16 -0.002629418309553995
 17 -0.0032864789330329415
 18 -1.5224059248262384e-17
 19 0.0016599787493153453
 20 -0.0008934971245084973
 21 -0.0026294148413095048
 22 -0.0032864732840936772
 23 6.3504623817391798e-17
 24 -0.0016599759140804443
 25 -0.0008934955433021214
 26 -0.0030687345258845877
 27 -1.5639607850568074e-05
 28 6.0893246796357492e-17
 29 -4.1683017318423429e-05
 30 -3.1542578927295714e-05
 31 -0.0030687345472942742
 32 -1.5639617847830641e-05
 33 1.2879961901203569e-16
 34 -4.1683022071033193e-05
 35 3.1542581714132448e-05
 36 -0.002629414842899175
 37 -0.0032864730961098994
 38 -3.9621087745071835e-17
 39 -0.0016599758215476226
 40 0.00089349549481219578
 41 0.0090920667553254404
 42 -0.0066367035025713741
 43 7.7281131409684985e-17
 44 -2.943420773725677e-09
 45 0.001904566173797001
 46 0.009092067494065003
 47 -0.0066367038817922649
 48 2.3066622236492123e-16
 49 -2.939604805715545e-09
 50 -0.0019045662764700898
 51 0.49624653872384
 52 0.014877622910566102
 53 -1.9144112032391943e-16
 54 -7.3349688169535576e-05
 55 0.0018726971503088205
 56 0.49624656518019378
 57 0.014877624075696004
 58 -3.51265427668418e-17
 59 -7.3349702136142961e-05
 60 -0.0018726970430323481
 61 0.49624567430831756
 62 0.014877597559506926
 63 -1.6436421083846343e-17
 64 7.3349300441762078e-05
 65 -0.0018726938908188093
 66 0.49624564673332722
 67 0.014877596345686521
 68 9.9240574039631237e-17
 69 7.3349286158512148e-05
 70 0.0018726940025018957
 71 1.0711679011208425e-05
 72 -3.6953343958872828e-05
 73 -3.6953344414319272e-05
 74 1.0711682673331981e-05
 75 1.0711661290534538e-05
 76 -3.6953276532664114e-05
 77 -3.6953276051684275e-05
 78 1.0711657452718189e-05
 79 -6.3302036604630241e-05
 80 -6.3302032674572573e-05
Sym= A
Ene= -11.039203619069683
Spin= Alpha
Occup= 2
 1 2.1892903301356376e-05
 2 -0.0033800914485772743
 3 -7.4252501103919839e-17
 4 0.0016641146613662963
 5 0.00087141724891445088
 6 0.00037734822532873007
 7 0.0001792352131309103
 8 2.3761005373757115e-17
 9 -8.5337088982622919e-05
 10 -5.0108181943639505e-05
 11 -0.00037734839224070737
 12 -0.00017923521400364621
 13 -3.5015083630651111e-17
 14 8.5337091235122321e-05
 15 -5.0108183644069666e-05
 16 -2.1893046307786858e-05
 17 0.0033800912708415697
 18 -1.7716990526702889e-16
 19 -0.0016641145715928368
 20 0.0008714172006092924
 21 -2.1895686466148756e-05
 22 0.0033801166833815795
 23 1.0314591090781936e-16
 24 0.0016641269856766186
 25 0.00087142393044285782
 26 -0.00037735205222502646
 27 -0.00017923666697140447
 28 -9.695182334604825e-17
 29 -8.5337776914350995e-05
 30 -5.0108553484826211e-05
 31 0.00037735188336040192
 32 0.00017923666610737514
 33 1.7134245496836524e-16
 34 8.5337774625990521e-05
 35 -5.0108551750894636e-05
 36 2.189554209327052e-05
 37 -0.0033801168638569849
 38 -4.711489326161414e-17
 39 -0.0016641270768254224
 40 0.0008714239795181225
 41 0.013547811692897815
 42 -0.0069591789069148521
 43 6.8611459426836842e-17
 44 1.2813254677825482e-08
 45 0.0018841203809350504
 46 -0.013547811199567019
 47 0.0069591785451728755
 48 -1.6229584684384305e-16
 49 -1.2811826380449427e-08
 50 0.0018841202771446852
 51 0.49574877691726654
 52 0.021827476178676856
 53 -6.0148533423127059e-17
 54 -0.00025922419980104004
 55 -0.0020090503326678846
 56 -0.49574875009103225
 57 -0.021827475374353426
 58 1.3558456966117655e-17
 59 0.0002592241958964429
 60 -0.0020090504339578472
 61 -0.4957525061197593
 62 -0.02182763887141119
 63 1.2828473098846669e-17
 64 -0.00025922525439943779
 65 -0.0020090652301042802
 66 0.49575253337890612
 67 0.021827639688622245
 68 -7.4494631216614231e-17
 69 0.00025922525850003353
 70 -0.0020090651272852283
 71 6.8780830768053365e-05
 72 -8.573335280965752e-06
 73 8.5733332907192428e-06
 74 -6.8780830185640775e-05
 75 -6.8781427249264143e-05
 76 8.5734083709737563e-06
 77 -8.5734103991621374e-06
 78 6.8781427839707636e-05
 79 7.2166688384004557e-05
 80 -7.2166691818968676e-05
Sym= A
Ene= -11.039177461569023
Spin= Alpha
Occup= 2
 1 -0.00034912391729211142
 2 0.0033547599622120762
 3 -9.6960518310509351e-17
 4 -0.0016388102498810161
 5 -0.0008884256848967105
 6 -0.00048481666163745826
 7 -0.00019187251209216299
 8 2.7312120098686935e-16
 9 9.0510644579636871e-05
 10 4.8826703522633456e-05
 11 0.00048481668861171789
 12 0.00019187251220912759
 13 -3.5460673835564429e-17
 14 -9.0510644928934502e-05
 15 4.8826703828389745e-05
 16 0.00034912393372701835
 17 -0.0033547599353719454
 18 1.4425411267855381e-17
 19 0.0016388102364314205
 20 -0.00088842567736081152
 21 -0.00034912377532676222
 22 0.0033547343254585436
 23 7.6101567916676116e-17
 24 0.0016387976280442425
 25 0.00088841907490222818
 26 -0.00048481382157926356
 27 -0.00019187115389805807
 28 1.4684035501961909e-16
 29 -9.0509998483739819e-05
 30 -4.8826324233742363e-05
 31 0.00048481378812754907
 32 0.00019187115375784991
 33 8.0099883463534783e-17
 34 9.0509998040783166e-05
 35 -4.8826323855370116e-05
 36 0.00034912375302919207
 37 -0.0033547343597125686
 38 4.9126566001900508e-17
 39 -0.0016387976452374373
 40 0.00088841908445502424
 41 -5.1418199312031133e-08
 42 2.6352019098242203e-08
 43 -3.2553291432072245e-18
 44 0.0033826421405685203
 45 -7.1354045976776183e-09
 46 5.1428573387477256e-08
 47 -2.6359499598293558e-08
 48 -7.1164003321260582e-18
 49 -0.0033826421087988084
 50 -7.1375528687851341e-09
 51 -0.49584314395012624
 52 -0.02158335011644558
 53 -8.5381174710038944e-18
 54 0.0001397562281665874
 55 0.0019530654055799207
 56 0.49584313969580818
 57 0.021583349989893769
 58 -1.2952496639851068e-16
 59 -0.00013975622608166619
 60 0.001953065420478281
 61 -0.49583938358048774
 62 -0.021583184619620822
 63 -5.1368591673977747e-18
 64 -0.00013975426287320949
 65 -0.0019530502026115573
 66 0.49583938895416008
 67 0.021583184779729942
 68 -1.3899389668867248e-17
 69 0.00013975426512268961
 70 -0.0019530501834895478
 71 -7.8811929198190425e-05
 72 9.9259271590292769e-06
 73 -9.9259268375329751e-06
 74 7.8811929089338262e-05
 75 -7.8811408004968164e-05
 76 9.9258617645044123e-06
 77 -9.9258621720603457e-06
 78 7.8811408137076031e-05
 79 -2.726491343913616e-10
 80 2.7257646004617472e-10
Sym= A
Ene= -11.030022192049069
Spin= Alpha
Occup= 2
 1 0.17028983499539588
 2 0.0024675453448150322
 3 6.8587384196474046e-17
 4 -0.0014790484996128651
 5 0.00077109768865112061
 6 0.46584953883701852
 7 0.018893987867430406
 8 1.5665300865936776e-16
 9 -7.8248254210381424e-05
 10 -0.0020283148311614277
 11 -0.46584953718383765
 12 -0.018893987819298928
 13 1.2712268677609801e-16
 14 7.8248253270674778e-05
 15 -0.0020283148370886864
 16 -0.17028983475438114
 17 -0.0024675453487291513
 18 -1.5457778404042626e-16
 19 0.0014790484943048784
 20 0.00077109768546654994
 21 -0.17027018432240582
 22 -0.0024672610748538298
 23 -1.5926591860730736e-16
 24 -0.0014788774349613724
 25 0.00077100864850921519
 26 -0.46579567985393433
 27 -0.01889180327608855
 28 2.9621256816696244e-16
 29 -7.823913579801077e-05
 30 -0.0020280804048604245
 31 0.46579568209743333
 32 0.018891803340919507
 33 -5.1142600645929667e-17
 34 7.8239136848432672e-05
 35 -0.0020280803969439792
 36 0.17027018471321662
 37 0.002467261071893434
 38 2.5219634208576552e-17
 39 0.0014788774421252496
 40 0.00077100865277697495
 41 -0.0029982161677460854
 42 -4.2720909171685851e-05
 43 -1.978214929992396e-16
 44 -4.4209552866454843e-10
 45 -2.2866874035473196e-05
 46 0.0029982161592023719
 47 4.2720908136948017e-05
 48 1.3447434177419477e-16
 49 4.421623231988117e-10
 50 -2.2866874237543328e-05
 51 -0.00017725193136964093
 52 -0.0010085942581315854
 53 5.6122535137804312e-17
 54 -0.0004956051127986659
 55 -0.00025913349526579879
 56 0.00017725194401693994
 57 0.0010085942573082179
 58 2.2431282059141711e-17
 59 0.00049560511168638896
 60 -0.00025913349522052251
 61 0.00017720192166841009
 62 0.0010084773863502997
 63 -6.199429247984055e-17
 64 -0.00049554728390190095
 65 -0.00025910328988861149
 66 -0.000177201905655071
 67 -0.001008477387907953
 68 4.6171579476843316e-17
 69 0.00049554728563533726
 70 -0.00025910329006906957
 71 -0.0010709127478280497
 72 -0.0032132543852149281
 73 0.0032132543739117683
 74 0.0010709127462277717
 75 0.0010707890174133849
 76 0.0032128828856507613
 77 -0.0032128829009888116
 78 -0.0010707890200294355
 79 -1.3902798785123648e-05
 80 1.3902798772090236e-05
Sym= A
Ene= -11.03002173400052
Spin= Alpha
Occup= 2
 1 0.17017712558174983
 2 0.0024666389024243091
 3 -7.065845845376835e-17
 4 -0.0014794162182802419
 5 0.00076987237417985854
 6 0.46583429426787898
 7 0.018893318894381037
 8 2.5808485552640393e-16
 9 -7.8156264893450289e-05
 10 -0.002028129782453425
 11 -0.46583429245589247
 12 -0.018893318841744274
 13 1.9030743323819937e-16
 14 7.8156263917856551e-05
 15 -0.0020281297889193223
 16 -0.17017712530206719
 17 -0.0024666389061224689
 18 -1.3780439566570331e-16
 19 0.0014794162124612265
 20 0.00076987237070653969
 21 0.17019682963603977
 22 0.0024669249768653131
 23 -4.1646420221374104e-18
 24 0.0014795871237080309
 25 -0.00076996145551121858
 26 0.46588812900519921
 27 0.018895502154831628
 28 5.0908231628871455e-17
 29 7.816522538906228e-05
 30 0.0020283642430484611
 31 -0.4658881312953535
 32 -0.018895502220921966
 33 6.4114522579457788e-17
 34 -7.8165226420928713e-05
 35 0.0020283642349906358
 36 -0.17019683004660896
 37 -0.0024669249742756624
 38 -2.1369156487266103e-16
 39 -0.0014795871310156541
 40 -0.00076996145985810949
 41 1.7340079735088346e-07
 42 2.4671815296770846e-09
 43 3.8003981948068056e-17
 44 -7.6250617459918194e-06
 45 1.3222120936936941e-09
 46 -1.7339826648619566e-07
 47 -2.4670003556730172e-09
 48 -4.1929323777750644e-17
 49 7.6250612620029938e-06
 50 1.3222428730225067e-09
 51 -0.00043258288511091245
 52 -0.0010123014574954289
 53 -1.2750174672181042e-16
 54 -0.00050088319520736474
 55 -0.00026161032162910595
 56 0.00043258289747892531
 57 0.0010123014564284282
 58 -5.153460848709638e-19
 59 0.00050088319392130667
 60 -0.00026161032153119296
 61 -0.00043260334324723201
 62 -0.0010124181819504124
 63 -1.3862856831122498e-17
 64 0.0005009405501414585
 65 0.00026164030881815382
 66 0.00043260332652042283
 67 0.001012418183605153
 68 3.6294001215820735e-17
 69 -0.00050094055196530859
 70 0.00026164030902666585
 71 -0.0010716358140301172
 72 -0.0032131080735518652
 73 0.0032131080611637608
 74 0.0010716358121665871
 75 -0.0010717597416158948
 76 -0.0032134793999053016
 77 0.0032134794155616042
 78 0.0010717597443681524
 79 8.0430265857872634e-10
 80 -8.0430661140120268e-10
Sym= A
Ene= -11.029958259835672
Spin= Alpha
Occup= 2
 1 -0.1449012705230614
 2 -0.0016585216512115045
 3 3.4888806400077463e-17
 4 0.0014721315322852938
 5 -0.00085339091957261325
 6 -0.47484594319557183
 7 -0.013245305408156147
 8 1.1258737834901606e-16
 9 2.8852523310217426e-06
 10 -0.001550941681073538
 11 -0.47484594475786218
 12 -0.013245305469283847
 13 -1.1289557994509045e-16
 14 2.8852516825439434e-06
 15 0.0015509416737439878
 16 -0.1449012713679293
 17 -0.001658521669609371
 18 -2.0530724137454953e-16
 19 0.0014721315370623336
 20 0.00085339092183594166
 21 0.14485046446304045
 22 0.0016579431573157666
 23 -1.6673060809553502e-16
 24 0.0014716161597478558
 25 -0.00085309095642188346
 26 0.47467935439377207
 27 0.013240658347050197
 28 -2.2529089353784779e-17
 29 2.8840905756987237e-06
 30 -0.0015503975183312722
 31 0.47467935226697722
 32 0.013240658263178079
 33 1.1640019591921873e-16
 34 2.8840911915108125e-06
 35 0.0015503975281553929
 36 0.14485046339326027
 37 0.0016579431352461427
 38 -2.1571192184988063e-16
 39 0.0014716161531936126
 40 0.00085309095324430893
 41 7.476648488966168e-07
 42 5.6299411251483528e-08
 43 1.0704660057282938e-16
 44 0.00011345579792704751
 45 -1.0612612016145678e-08
 46 7.4766381832915922e-07
 47 5.6299414062444314e-08
 48 1.9008245459259358e-17
 49 0.00011345579791742499
 50 1.0612626370779789e-08
 51 -0.0036427830939325194
 52 0.00071628200276046563
 53 1.1831935835746122e-16
 54 0.00058400279064300508
 55 0.00014800726535795818
 56 -0.003642783091010301
 57 0.00071628200806881065
 58 7.3620859466824981e-17
 59 0.00058400279324150408
 60 -0.00014800726668320711
 61 0.0036414047017880942
 62 -0.00071603777287969361
 63 6.6192752691748217e-17
 64 0.00058379924654878527
 65 0.00014795875939752068
 66 0.0036414047041798407
 67 -0.00071603776624256754
 68 -2.4168348529671078e-16
 69 0.00058379924329355639
 70 -0.00014795875772129555
 71 0.00098765606555942242
 72 0.0032451074757614412
 73 0.0032451074864757457
 74 0.00098765607103188172
 75 -0.00098731004247143428
 76 -0.0032439689994568505
 77 -0.0032439689848527617
 78 -0.00098731003557380598
 79 7.0211228171403733e-11
 80 7.0196401640838182e-11
Sym= A
Ene= -11.029958093517246
Spin= Alpha
Occup= 2
 1 0.14482766654238197
 2 0.0016506189005469837
 3 1.9344439001103993e-16
 4 -0.0014684460583915329
 5 0.00085465891964599944
 6 0.47467456071543113
 7 0.013240830448643881
 8 1.7333895013152063e-16
 9 -3.093901052951889e-06
 10 0.0015503621328706377
 11 0.47467456223066068
 12 0.013240830507884729
 13 4.1842537623346505e-17
 14 -3.0939004050422117e-06
 15 -0.0015503621257494868
 16 0.14482766736807196
 17 0.0016506189186015277
 18 -2.6140874023574128e-17
 19 -0.0014684460630162502
 20 -0.00085465892184180027
 21 0.14487852157519399
 22 0.0016512015312629552
 23 1.9766391829034493e-16
 24 0.001468962486178664
 25 -0.00085495828243174754
 26 0.47484114287073809
 27 0.013245476930648939
 28 -3.5748196971109611e-17
 29 3.0948371093127841e-06
 30 -0.0015509061667756049
 31 0.47484114089783058
 32 0.013245476853045501
 33 -2.4600689780857398e-16
 34 3.0948377611880393e-06
 35 0.0015509061759364853
 36 0.14487852055775313
 37 0.0016512015098822178
 38 1.1667054826929521e-16
 39 0.0014689624801185047
 40 0.00085495827950637406
 41 -0.0042625706256717178
 42 -0.00032091651690013216
 43 4.8421448836600168e-17
 44 1.9904136491620657e-08
 45 6.0497266124647994e-05
 46 -0.004262570644084202
 47 -0.0003209165171541269
 48 -3.9626967795734333e-16
 49 1.9904140244321779e-08
 50 -6.0497266021282761e-05
 51 0.00392769390703293
 52 -0.00069628711932648367
 53 4.8316272397481776e-17
 54 -0.00058018190935805666
 55 -0.00013831474256244085
 56 0.0039276939059549173
 57 -0.00069628712445909784
 58 6.0659379008977818e-17
 59 -0.00058018191187662882
 60 0.00013831474383698035
 61 0.003928971816395249
 62 -0.00069653853918336269
 63 7.5896325708028418e-17
 64 0.00058038685970225557
 65 0.00013836670421580287
 66 0.0039289718174515707
 67 -0.00069653853291051196
 68 -2.0555363468058171e-16
 69 0.00058038685660981879
 70 -0.00013836670264160029
 71 -0.0009863812092602009
 72 -0.0032439490307400315
 73 -0.0032439490411309072
 74 -0.00098638121460196959
 75 -0.00098672784339201569
 76 -0.0032450874564531676
 77 -0.0032450874429112014
 78 -0.0009867278368285784
 79 -4.0371355875630163e-07
 80 -4.0371360561465217e-07
Sym= A
Ene= -11.028864603079809
Spin= Alpha
Occup= 2
 1 0.46586836226620842
 2 0.018583945660088773
 3 1.3766888018085586e-16
 4 0.00090598567411381316
 5 -0.00088983016397597807
 6 -0.16980626479817129
 7 -0.011197291769195135
 8 -2.4152555704889079e-16
 9 0.00178451879481277
 10 -0.00027892227125922409
 11 0.16980627042974739
 12 0.011197292074498629
 13 5.8826713801332497e-17
 14 -0.0017845188631182354
 15 -0.00027892232841409607
 16 -0.46586837986797719
 17 -0.018583946349769405
 18 -2.7690553702486478e-17
 19 -0.00090598570574046758
 20 -0.00088983018951691896
 21 0.46605804424376873
 22 0.018591510373002107
 23 -5.6521155234444315e-17
 24 -0.00090635537317832263
 25 0.00089019164759608985
 26 -0.1698754784403923
 27 -0.011201853432362133
 28 8.438642592686749e-17
 29 -0.0017852451142974443
 30 0.00027903551371882417
 31 0.16987547258419167
 32 0.011201853115223899
 33 8.7162825507341265e-17
 34 0.001785245043425851
 35 0.00027903545437343944
 36 -0.46605802598436297
 37 -0.018591509657469446
 38 5.992466915443065e-17
 39 0.00090635534031115877
 40 0.00089019162108003487
 41 1.3104071527317633e-06
 42 -7.6335208857937903e-09
 43 -1.4452009030074525e-16
 44 6.3153949800141135e-05
 45 5.4323843874037883e-09
 46 -1.3104128449585073e-06
 47 7.6334137019879937e-09
 48 1.6978156478511224e-17
 49 -6.3153950637013373e-05
 50 5.4323420726997676e-09
 51 0.00025003732163151595
 52 -0.0032068401943092361
 53 9.7505861194273423e-17
 54 -0.0015752892680719541
 55 -0.00077712051032315793
 56 -0.00025003737188621675
 57 0.0032068403046960695
 58 3.3238202055252206e-18
 59 0.0015752893277514723
 60 -0.00077712054197631719
 61 0.0002502855013240844
 62 -0.0032081438426884122
 63 4.5324570844189346e-17
 64 0.0015759271649013404
 65 0.00077743195736061123
 66 -0.0002502854485448878
 67 0.0032081437282055151
 68 3.2017109664772526e-17
 69 -0.0015759271030320252
 70 0.00077743192456787222
 71 -0.0032246404306408988
 72 0.0012897988655224263
 73 -0.001289798904377637
 74 0.0032246405536555736
 75 -0.0032259523449442648
 76 0.0012903244531026897
 77 -0.0012903244126985167
 78 0.0032259522173363822
 79 4.9587092520041485e-09
 80 -4.9587298516264677e-09
Sym= A
Ene= -11.028864419528434
Spin= Alpha
Occup= 2
 1 0.46599747144974185
 2 0.018583998068312714
 3 1.1770473040320925e-16
 4 0.00090805080208405248
 5 -0.00088796295818896476
 6 -0.16998092657206618
 7 -0.011204446134316814
 8 2.017713108547501e-17
 9 0.0017842855284110198
 10 -0.00027830947728096347
 11 0.16998093200717204
 12 0.011204446428565183
 13 6.7416038658357553e-17
 14 -0.0017842855941346686
 15 -0.00027830953235541628
 16 -0.46599748839195004
 17 -0.018583998731524054
 18 1.8109180467455597e-16
 19 -0.00090805083291045467
 20 -0.00088796298258281975
 21 -0.4658077842691476
 22 -0.01857643144889648
 23 -1.1924465028125136e-16
 24 0.00090768199437776115
 25 -0.00088760068982873114
 26 0.16991181046725307
 27 0.011199887895295706
 28 -1.7198832980513153e-16
 29 0.0017835589624199677
 30 -0.00027819586531325916
 31 -0.16991180477125345
 32 -0.011199887587051902
 33 -2.1863949176733629e-16
 34 -0.0017835588936005245
 35 -0.00027819580762977747
 36 0.46580776653074529
 37 0.018576430754440598
 38 -2.1964769799076679e-17
 39 -0.00090768196210040328
 40 -0.00088760066426749745
 41 -0.0064388576938277939
 42 3.7465105850823313e-05
 43 2.0548723969161129e-16
 44 1.2854989283532849e-08
 45 -2.6689308075701981e-05
 46 0.0064388580471610932
 47 -3.7465097962666172e-05
 48 3.326134728364696e-17
 49 -1.2854969879933333e-08
 50 -2.6689305744675984e-05
 51 0.00060953291457323689
 52 -0.0032027148446186759
 53 1.1229255555966896e-16
 54 -0.0015671350645144189
 55 -0.00076513323985921006
 56 -0.00060953299082835413
 57 0.0032027149493482378
 58 -2.6467224656983217e-17
 59 0.0015671351211672055
 60 -0.00076513326897556175
 61 -0.0006094311600152889
 62 0.0032014091146313345
 63 -1.1654178081294275e-16
 64 -0.0015664936590178632
 65 -0.00076481682335491352
 66 0.00060943108162922997
 67 -0.0032014090049040655
 68 -1.4496370685998661e-16
 69 0.0015664935996675886
 70 -0.00076481679280629086
 71 -0.0032230048855996507
 72 0.0012908309018621437
 73 -0.0012908309393545279
 74 0.0032230050038936919
 75 0.0032216919179519285
 76 -0.0012903058971243733
 77 0.0012903058578324252
 78 -0.0032216917940927486
 79 -2.4356631291903852e-05
 80 2.4356632017340923e-05
Sym= A
Ene= -11.028828334578028
Spin= Alpha
Occup= 2
 1 -0.47445450824185542
 2 -0.018534777574303059
 3 -3.3238537406489183e-17
 4 -0.00082875430854179206
 5 0.00067372431959336967
 6 0.14461465218035138
 7 0.0080122078361510064
 8 -6.2956031565664186e-18
 9 -0.0018333709366013043
 10 0.0015127490296349168
 11 0.14461464611773614
 12 0.0080122074303134692
 13 -1.6553185458747728e-16
 14 -0.001833370870420202
 15 -0.0015127490182453573
 16 -0.47445449086695296
 17 -0.018534776883411087
 18 6.8299516024302121e-17
 19 -0.0008287542756780248
 20 -0.00067372428696534092
 21 0.47448860601547538
 22 0.018536108353843752
 23 2.2284841063095089e-17
 24 -0.00082881459755645981
 25 0.00067377235302242336
 26 -0.14462506790824006
 27 -0.0080127841398618116
 28 2.0046337967826502e-16
 29 -0.0018335026486238568
 30 0.0015128578916974826
 31 -0.14462507423363108
 32 -0.0080127845637134737
 33 -7.2438246162089052e-17
 34 -0.0018335027178465052
 35 -0.001512857903681445
 36 0.4744886241955899
 37 0.018536109076597161
 38 9.351411277811475e-18
 39 -0.00082881463188312458
 40 -0.00067377238712058515
 41 -3.458447389037712e-07
 42 -7.7970394449928446e-09
 43 -7.8657237301821066e-17
 44 -2.0555109372645715e-05
 45 2.3112986894443425e-09
 46 -3.4583886885466969e-07
 47 -7.7970594503682941e-09
 48 -1.1118747654041793e-16
 49 -2.0555106983116168e-05
 50 -2.3113221024421268e-09
 51 -0.0013910738591194657
 52 0.0029728959570877664
 53 1.5620029831290679e-16
 54 0.0016094392487804934
 55 0.00085110679835239018
 56 -0.0013910738498656735
 57 0.0029728958375827164
 58 -7.6603710464928758e-17
 59 0.0016094391900607283
 60 -0.00085110676936796768
 61 0.0013912287702902346
 62 -0.002973106645438402
 63 2.0164933552086134e-16
 64 0.0016095533823067207
 65 0.00085116536000326773
 66 0.0013912287804874609
 67 -0.002973106770466933
 68 -5.8328499435399692e-17
 69 0.0016095534437325781
 70 -0.00085116539030751816
 71 0.0033154786715136053
 72 -0.00099819785346298186
 73 -0.00099819780724618064
 74 0.0033154785513009322
 75 -0.0033157167313197997
 76 0.00099826972890813478
 77 0.00099826977714001161
 78 -0.0033157168570961681
 79 -7.2751282931027333e-10
 80 -7.2749390138339086e-10
Sym= A
Ene= -11.028827220213293
Spin= Alpha
Occup= 2
 1 0.47443484341351899
 2 0.018514293927573131
 3 2.3747915521434572e-17
 4 0.00083790074973274196
 5 -0.00066784337699347593
 6 -0.14463707632540329
 7 -0.0080112586598698535
 8 -1.6969586215028382e-16
 9 0.0018322984929945232
 10 -0.0015129213161211887
 11 -0.14463707044676286
 12 -0.0080112582662003086
 13 -1.2142320576179531e-17
 14 0.0018322984287718752
 15 0.0015129213050372285
 16 0.47443482654092262
 17 0.018514293256952245
 18 -7.9625630906467318e-17
 19 0.00083790071779847597
 20 0.00066784334541612062
 21 0.47440069486306963
 22 0.018512960052230305
 23 9.0767460141716934e-17
 24 -0.00083784116905756545
 25 0.00066779492205951835
 26 -0.14462668840564835
 27 -0.0080106825219549739
 28 -4.508854316754325e-17
 29 -0.0018321665615097724
 30 0.0015128125634068026
 31 -0.14462669450570098
 32 -0.0080106829305677738
 33 -2.4637955265107249e-17
 34 -0.0018321666281987392
 35 -0.0015128125749348138
 36 0.47440071238484965
 37 0.018512960748623783
 38 7.8710744205336742e-17
 39 -0.00083784120220274823
 40 -0.00066779495484543816
 41 -0.0096265658157616441
 42 -0.00021726108650725042
 43 5.0956480569663613e-17
 44 7.3679574166735523e-10
 45 6.4311584147540291e-05
 46 -0.0096265655836327291
 47 -0.00021726108807513383
 48 -2.7017801919744456e-17
 49 7.3683912926047051e-10
 50 -6.4311585145977734e-05