[Molden Format]
[Title]
 Hydrogen molecule H2 - STO-3G basis

[Atoms] Angs
H   1   1   0.000000   0.000000   0.000000
H   2   1   0.000000   0.000000   0.740000

[GTO]
1 0
s 3 1.0
3.42525091 0.15432897
0.62391373 0.53532814
0.16885540 0.44463454

2 0
s 3 1.0
3.42525091 0.15432897
0.62391373 0.53532814
0.16885540 0.44463454

[MO]
Ene= -0.594
Spin= Alpha
Occup= 2.0
Sym= Sigma_g
1
 0.548919
 0.548919
Ene= 0.675
Spin= Alpha
Occup= 0.0
Sym= Sigma_u
2
 0.806856
-0.806856
