[Molden Format]
[Title]
 Water molecule H2O - STO-3G basis

[Atoms] Angs
O   1   8   0.000000   0.000000   0.117080
H   2   1   0.000000   0.757000  -0.468320
H   3   1   0.000000  -0.757000  -0.468320

[GTO]
1 0
s 3 1.0
130.7093200 0.15432897
23.8088610 0.53532814
6.4436083 0.44463454
sp 3 1.0
5.0331513 -0.09996723 0.15591627
1.1695961 0.39951283 0.60768372
0.3803890 0.70011547 0.39195739

2 0
s 3 1.0
3.42525091 0.15432897
0.62391373 0.53532814
0.16885540 0.44463454

3 0
s 3 1.0
3.42525091 0.15432897
0.62391373 0.53532814
0.16885540 0.44463454

[MO]
Ene= -20.251
Spin= Alpha
Occup= 2.0
Sym= A1
1
 0.994216
 0.025846
 0.000000
 0.000000
 0.006035
 0.004764
 0.004764
Ene= -1.268
Spin= Alpha
Occup= 2.0
Sym= A1
2
 0.233767
-0.844456
 0.000000
 0.000000
 0.122829
 0.155930
 0.155930
Ene= -0.618
Spin= Alpha
Occup= 2.0
Sym= B2
3
 0.000000
 0.000000
 0.612745
 0.000000
 0.000000
-0.449221
 0.449221
Ene= -0.459
Spin= Alpha
Occup= 2.0
Sym= A1
4
-0.104033
 0.538153
 0.000000
 0.000000
-0.755880
 0.293010
 0.293010
Ene= -0.393
Spin= Alpha
Occup= 2.0
Sym= B1
5
 0.000000
 0.000000
 0.000000
 1.000000
 0.000000
 0.000000
 0.000000
Ene= 0.603
Spin= Alpha
Occup= 0.0
Sym= A1
6
-0.125164
 0.820687
 0.000000
 0.000000
 1.722395
-0.817670
-0.817670
Ene= 0.740
Spin= Alpha
Occup= 0.0
Sym= B2
7
 0.000000
 0.000000
-0.962983
 0.000000
 0.000000
 1.019111
-1.019111
