[Molden Format]
[Title]
generated by GANSU
[Atoms] (Angs)
O 1 8 1.63937 1.4191 0.96692
O 2 8 3.66691 -0.06489 -1.65173
O 3 8 5.66341 1.2822 -0.18908
O 4 8 5.75413 -0.42914 2.0242
O 5 8 -4.7205 1.69838 0.72783
O 6 8 -1.73948 4.68969 -0.7894
N 7 7 -0.47531 0.2489 -0.63807
N 8 7 -2.98508 -0.35872 0.37461
N 9 7 -1.12946 2.54739 -0.71977
N 10 7 -3.27749 3.24386 -0.02281
C 11 6 1.95013 0.51249 -0.06145
C 12 6 0.86679 0.60728 -1.16404
C 13 6 3.34717 0.85135 -0.63312
C 14 6 4.47297 0.8664 0.43243
C 15 6 -0.80893 -1.06516 -0.34247
C 16 6 -1.41157 1.24335 -0.43882
C 17 6 -2.09297 -1.35685 0.17814
C 18 6 0.07603 -2.14964 -0.5552
C 19 6 -2.68159 0.92542 0.07784
C 20 6 4.70182 -0.50311 1.10052
C 21 6 -0.29261 -3.47022 -0.24433
C 22 6 -2.46239 -2.66714 0.48909
C 23 6 -1.57431 -3.73097 0.28671
C 24 6 -3.61358 1.94975 0.28134
C 25 6 0.68964 -4.5881 -0.4869
C 26 6 -2.00888 -5.13142 0.63365
C 27 6 -2.03513 3.53882 -0.52222
H 28 1 1.99552 -0.51531 0.35084
H 29 1 0.89789 1.65081 -1.5414
H 30 1 1.0985 -0.02235 -2.04948
H 31 1 3.2758 1.88247 -1.05772
H 32 1 4.1849 1.60737 1.21556
H 33 1 1.0588 -1.99434 -0.97161
H 34 1 3.78781 -0.86979 1.61588
H 35 1 4.96928 -1.25797 0.33104
H 36 1 -3.45243 -2.85459 0.88882
H 37 1 1.00491 0.96137 1.5784
H 38 1 4.21775 0.41938 -2.32081
H 39 1 6.20636 1.75145 0.49731
H 40 1 1.64829 -4.21563 -0.90649
H 41 1 0.91487 -5.10602 0.46866
H 42 1 0.26227 -5.31616 -1.20756
H 43 1 -3.04396 -5.15481 1.03621
H 44 1 -1.98033 -5.7712 -0.27296
H 45 1 -1.33267 -5.55609 1.40468
H 46 1 -3.97229 4.01104 0.12849
H 47 1 5.39678 0.03355 2.82678
[GTO]
1 0
 s 3 1.00
    23.8089 0.535328
    6.44361 0.444635
    130.709 0.154329
 s 3 1.00
    5.03315 -0.0999672
    1.1696 0.399513
    0.380389 0.700115
 p 3 1.00
    5.03315 0.155916
    1.1696 0.607684
    0.380389 0.391957

2 0
 s 3 1.00
    23.8089 0.535328
    6.44361 0.444635
    130.709 0.154329
 s 3 1.00
    5.03315 -0.0999672
    1.1696 0.399513
    0.380389 0.700115
 p 3 1.00
    5.03315 0.155916
    1.1696 0.607684
    0.380389 0.391957

3 0
 s 3 1.00
    130.709 0.154329
    23.8089 0.535328
    6.44361 0.444635
 s 3 1.00
    0.380389 0.700115
    1.1696 0.399513
    5.03315 -0.0999672
 p 3 1.00
    5.03315 0.155916
    1.1696 0.607684
    0.380389 0.391957

4 0
 s 3 1.00
    130.709 0.154329
    6.44361 0.444635
    23.8089 0.535328
 s 3 1.00
    0.380389 0.700115
    1.1696 0.399513
    5.03315 -0.0999672
 p 3 1.00
    5.03315 0.155916
    0.380389 0.391957
    1.1696 0.607684

5 0
 s 3 1.00
    130.709 0.154329
    23.8089 0.535328
    6.44361 0.444635
 s 3 1.00
    1.1696 0.399513
    0.380389 0.700115
    5.03315 -0.0999672
 p 3 1.00
    5.03315 0.155916
    1.1696 0.607684
    0.380389 0.391957

6 0
 s 3 1.00
    6.44361 0.444635
    23.8089 0.535328
    130.709 0.154329
 s 3 1.00
    0.380389 0.700115
    1.1696 0.399513
    5.03315 -0.0999672
 p 3 1.00
    5.03315 0.155916
    1.1696 0.607684
    0.380389 0.391957

7 0
 s 3 1.00
    99.1062 0.154329
    18.0523 0.535328
    4.88566 0.444635
 s 3 1.00
    0.285714 0.700115
    3.78046 -0.0999672
    0.878497 0.399513
 p 3 1.00
    0.878497 0.607684
    0.285714 0.391957
    3.78046 0.155916

8 0
 s 3 1.00
    99.1062 0.154329
    18.0523 0.535328
    4.88566 0.444635
 s 3 1.00
    3.78046 -0.0999672
    0.878497 0.399513
    0.285714 0.700115
 p 3 1.00
    3.78046 0.155916
    0.878497 0.607684
    0.285714 0.391957

9 0
 s 3 1.00
    99.1062 0.154329
    18.0523 0.535328
    4.88566 0.444635
 s 3 1.00
    0.285714 0.700115
    3.78046 -0.0999672
    0.878497 0.399513
 p 3 1.00
    3.78046 0.155916
    0.878497 0.607684
    0.285714 0.391957

10 0
 s 3 1.00
    99.1062 0.154329
    18.0523 0.535328
    4.88566 0.444635
 s 3 1.00
    3.78046 -0.0999672
    0.878497 0.399513
    0.285714 0.700115
 p 3 1.00
    0.285714 0.391957
    0.878497 0.607684
    3.78046 0.155916

11 0
 s 3 1.00
    71.6168 0.154329
    3.53051 0.444635
    13.0451 0.535328
 s 3 1.00
    0.22229 0.700115
    0.683483 0.399513
    2.94125 -0.0999672
 p 3 1.00
    2.94125 0.155916
    0.683483 0.607684
    0.22229 0.391957

12 0
 s 3 1.00
    3.53051 0.444635
    13.0451 0.535328
    71.6168 0.154329
 s 3 1.00
    2.94125 -0.0999672
    0.683483 0.399513
    0.22229 0.700115
 p 3 1.00
    2.94125 0.155916
    0.683483 0.607684
    0.22229 0.391957

13 0
 s 3 1.00
    71.6168 0.154329
    13.0451 0.535328
    3.53051 0.444635
 s 3 1.00
    2.94125 -0.0999672
    0.683483 0.399513
    0.22229 0.700115
 p 3 1.00
    2.94125 0.155916
    0.683483 0.607684
    0.22229 0.391957

14 0
 s 3 1.00
    3.53051 0.444635
    13.0451 0.535328
    71.6168 0.154329
 s 3 1.00
    0.22229 0.700115
    0.683483 0.399513
    2.94125 -0.0999672
 p 3 1.00
    0.683483 0.607684
    2.94125 0.155916
    0.22229 0.391957

15 0
 s 3 1.00
    71.6168 0.154329
    13.0451 0.535328
    3.53051 0.444635
 s 3 1.00
    2.94125 -0.0999672
    0.22229 0.700115
    0.683483 0.399513
 p 3 1.00
    2.94125 0.155916
    0.683483 0.607684
    0.22229 0.391957

16 0
 s 3 1.00
    71.6168 0.154329
    13.0451 0.535328
    3.53051 0.444635
 s 3 1.00
    2.94125 -0.0999672
    0.683483 0.399513
    0.22229 0.700115
 p 3 1.00
    2.94125 0.155916
    0.683483 0.607684
    0.22229 0.391957

17 0
 s 3 1.00
    71.6168 0.154329
    13.0451 0.535328
    3.53051 0.444635
 s 3 1.00
    2.94125 -0.0999672
    0.683483 0.399513
    0.22229 0.700115
 p 3 1.00
    0.683483 0.607684
    0.22229 0.391957
    2.94125 0.155916

18 0
 s 3 1.00
    13.0451 0.535328
    3.53051 0.444635
    71.6168 0.154329
 s 3 1.00
    2.94125 -0.0999672
    0.683483 0.399513
    0.22229 0.700115
 p 3 1.00
    2.94125 0.155916
    0.683483 0.607684
    0.22229 0.391957

19 0
 s 3 1.00
    3.53051 0.444635
    13.0451 0.535328
    71.6168 0.154329
 s 3 1.00
    0.22229 0.700115
    0.683483 0.399513
    2.94125 -0.0999672
 p 3 1.00
    2.94125 0.155916
    0.683483 0.607684
    0.22229 0.391957

20 0
 s 3 1.00
    71.6168 0.154329
    13.0451 0.535328
    3.53051 0.444635
 s 3 1.00
    0.683483 0.399513
    0.22229 0.700115
    2.94125 -0.0999672
 p 3 1.00
    2.94125 0.155916
    0.22229 0.391957
    0.683483 0.607684

21 0
 s 3 1.00
    13.0451 0.535328
    3.53051 0.444635
    71.6168 0.154329
 s 3 1.00
    0.683483 0.399513
    2.94125 -0.0999672
    0.22229 0.700115
 p 3 1.00
    2.94125 0.155916
    0.683483 0.607684
    0.22229 0.391957

22 0
 s 3 1.00
    71.6168 0.154329
    13.0451 0.535328
    3.53051 0.444635
 s 3 1.00
    2.94125 -0.0999672
    0.683483 0.399513
    0.22229 0.700115
 p 3 1.00
    2.94125 0.155916
    0.683483 0.607684
    0.22229 0.391957

23 0
 s 3 1.00
    3.53051 0.444635
    13.0451 0.535328
    71.6168 0.154329
 s 3 1.00
    0.22229 0.700115
    0.683483 0.399513
    2.94125 -0.0999672
 p 3 1.00
    0.22229 0.391957
    2.94125 0.155916
    0.683483 0.607684

24 0
 s 3 1.00
    3.53051 0.444635
    13.0451 0.535328
    71.6168 0.154329
 s 3 1.00
    0.22229 0.700115
    0.683483 0.399513
    2.94125 -0.0999672
 p 3 1.00
    0.22229 0.391957
    0.683483 0.607684
    2.94125 0.155916

25 0
 s 3 1.00
    3.53051 0.444635
    13.0451 0.535328
    71.6168 0.154329
 s 3 1.00
    0.22229 0.700115
    0.683483 0.399513
    2.94125 -0.0999672
 p 3 1.00
    0.683483 0.607684
    2.94125 0.155916
    0.22229 0.391957

26 0
 s 3 1.00
    71.6168 0.154329
    3.53051 0.444635
    13.0451 0.535328
 s 3 1.00
    0.683483 0.399513
    0.22229 0.700115
    2.94125 -0.0999672
 p 3 1.00
    2.94125 0.155916
    0.683483 0.607684
    0.22229 0.391957

27 0
 s 3 1.00
    3.53051 0.444635
    13.0451 0.535328
    71.6168 0.154329
 s 3 1.00
    2.94125 -0.0999672
    0.683483 0.399513
    0.22229 0.700115
 p 3 1.00
    2.94125 0.155916
    0.683483 0.607684
    0.22229 0.391957

28 0
 s 3 1.00
    3.42525 0.154329
    0.623914 0.535328
    0.168855 0.444635

29 0
 s 3 1.00
    0.168855 0.444635
    0.623914 0.535328
    3.42525 0.154329

30 0
 s 3 1.00
    0.168855 0.444635
    0.623914 0.535328
    3.42525 0.154329

31 0
 s 3 1.00
    0.168855 0.444635
    0.623914 0.535328
    3.42525 0.154329

32 0
 s 3 1.00
    3.42525 0.154329
    0.623914 0.535328
    0.168855 0.444635

33 0
 s 3 1.00
    3.42525 0.154329
    0.623914 0.535328
    0.168855 0.444635

34 0
 s 3 1.00
    3.42525 0.154329
    0.623914 0.535328
    0.168855 0.444635

35 0
 s 3 1.00
    3.42525 0.154329
    0.168855 0.444635
    0.623914 0.535328

36 0
 s 3 1.00
    3.42525 0.154329
    0.623914 0.535328
    0.168855 0.444635

37 0
 s 3 1.00
    0.168855 0.444635
    0.623914 0.535328
    3.42525 0.154329

38 0
 s 3 1.00
    0.168855 0.444635
    0.623914 0.535328
    3.42525 0.154329

39 0
 s 3 1.00
    0.623914 0.535328
    3.42525 0.154329
    0.168855 0.444635

40 0
 s 3 1.00
    3.42525 0.154329
    0.623914 0.535328
    0.168855 0.444635

41 0
 s 3 1.00
    3.42525 0.154329
    0.623914 0.535328
    0.168855 0.444635

42 0
 s 3 1.00
    0.623914 0.535328
    3.42525 0.154329
    0.168855 0.444635

43 0
 s 3 1.00
    3.42525 0.154329
    0.623914 0.535328
    0.168855 0.444635

44 0
 s 3 1.00
    3.42525 0.154329
    0.623914 0.535328
    0.168855 0.444635

45 0
 s 3 1.00
    0.623914 0.535328
    0.168855 0.444635
    3.42525 0.154329

46 0
 s 3 1.00
    0.168855 0.444635
    0.623914 0.535328
    3.42525 0.154329

47 0
 s 3 1.00
    0.168855 0.444635
    3.42525 0.154329
    0.623914 0.535328

[MO]
Sym= A
Ene= -24.4316
Spin= Alpha
Occup= 2
 1 4.1722064896898218e-07
 2 4.8420474857124148e-07
 3 -1.4976340543110889e-05
 4 -7.5756688199802829e-06
 5 -7.1687058403150392e-06
 6 1.1964330594111325e-05
 7 7.6314250875551983e-05
 8 3.3142773771197949e-05
 9 1.0124329732588838e-05
 10 -1.083756634317406e-05
 11 0.99501743899241468
 12 0.022382420360353553
 13 -0.00084611558328579308
 14 -7.5462380341602631e-05
 15 0.002029909826219227
 16 6.5612816136994013e-05
 17 4.3831356519461781e-05
 18 9.8351683152177644e-06
 19 5.2884282860480187e-05
 20 -2.7111945294418302e-05
 21 7.236477645993821e-12
 22 7.340889328633482e-11
 23 1.6645024375694809e-11
 24 2.7229781653154632e-10
 25 1.4783454437139201e-11
 26 3.0553439408816274e-10
 27 -5.2385551950541575e-09
 28 1.7892144579549708e-09
 29 2.1704133121226061e-09
 30 -4.0211608498225179e-10
 31 -1.2893121501939413e-07
 32 1.7510674491840664e-06
 33 1.0929782134408457e-06
 34 2.5212049725289732e-07
 35 -3.2096932389573488e-07
 36 2.9001831713107832e-10
 37 -6.9247570416310757e-09
 38 1.2290190097158179e-09
 39 -3.2085147338704585e-11
 40 3.8684269533948613e-10
 41 1.2568246578843856e-08
 42 -6.3019811085373742e-08
 43 -9.8005032730582838e-08
 44 -1.5976122480189917e-09
 45 6.5733227620418586e-08
 46 -1.5604702400180861e-10
 47 3.2534404499366831e-09
 48 1.7043438729910845e-09
 49 2.1318383565575674e-10
 50 -4.1527435066296184e-10
 51 8.8793171170579286e-06
 52 -4.3916659829680522e-05
 53 -5.4974431527836358e-05
 54 -6.0519568651195921e-06
 55 -5.0519881753246978e-05
 56 1.2513791430884021e-06
 57 -1.6218882289926725e-05
 58 -2.7869843408990227e-06
 59 1.8938669323861374e-06
 60 -8.5478906918695616e-06
 61 -1.5884922420154228e-05
 62 0.00031073778801835213
 63 0.00019870912932475429
 64 5.1759581652182206e-05
 65 3.6263942414935588e-05
 66 0.00048950353726004902
 67 -0.0041782729739963144
 68 -0.0027528163089505678
 69 -0.00093849061480360825
 70 0.0015190343164180704
 71 -5.4540661889666845e-09
 72 1.0593427093907917e-08
 73 -4.1066787215221915e-08
 74 5.0310896824093832e-08
 75 2.3885316935666233e-08
 76 1.2325583767113476e-09
 77 -3.3563109427114414e-09
 78 -6.575466494733002e-08
 79 -6.4210592457826199e-08
 80 9.0674335331186315e-08
 81 -3.1146086822553704e-10
 82 -9.2524514080564586e-09
 83 -8.7182501987034964e-09
 84 9.7951500954370774e-09
 85 3.7052496744761003e-10
 86 9.931667836710508e-09
 87 -1.8606049831956546e-07
 88 -1.1566031298755387e-07
 89 5.3692125528892625e-08
 90 2.0519968837197316e-07
 91 7.2582001540534791e-10
 92 -3.0429295931521352e-08
 93 -1.6791655568667922e-08
 94 -1.5617580123795622e-08
 95 3.6335102525185746e-09
 96 -1.2911600201050963e-05
 97 0.00028263049712370941
 98 9.6792252590058452e-05
 99 0.00012310777676687794
 100 -0.00012339279889271942
 101 -1.0699683069358847e-10
 102 8.9178765862433788e-09
 103 4.5565206331585515e-09
 104 -3.2144855877746581e-09
 105 -2.579098520276375e-08
 106 -9.704323757750997e-11
 107 3.9707952531169949e-09
 108 1.1611723713129645e-12
 109 1.2582490983405109e-09
 110 -1.123391812987151e-09
 111 2.1413224656117497e-10
 112 6.9732122822469931e-10
 113 1.270229739326574e-09
 114 -2.1220406780159667e-09
 115 1.2064809754054912e-09
 116 -1.7192212286381743e-10
 117 3.9300827765666426e-09
 118 2.3693501104968446e-09
 119 -6.8664950683451224e-10
 120 -8.7170174508845954e-10
 121 3.6488238086272127e-09
 122 -2.8547464137319294e-08
 123 -9.270583876994981e-09
 124 -1.1525843655687377e-08
 125 8.8817038879791198e-09
 126 7.1263606909568663e-11
 127 -6.4606690947519724e-10
 128 -4.0989661952598946e-10
 129 -4.2755142631379383e-10
 130 2.6043643682558469e-10
 131 6.1212664921339187e-10
 132 -1.297483650905392e-08
 133 2.3189512339771984e-10
 134 1.7479925660153065e-08
 135 -7.0643680367061416e-09
 136 -4.5888711580318112e-06
 137 3.8881690478111513e-06
 138 2.291343380189628e-06
 139 -6.7057955647016252e-05
 140 0.00044929125342249354
 141 6.7924022842430434e-07
 142 -5.8418969507931099e-05
 143 -5.6367440741850796e-05
 144 -5.2124803301803097e-10
 145 -5.5737171574202749e-06
 146 -0.00014464575559641554
 147 -0.0048197861823623617
 148 2.878303228226296e-08
 149 4.4056481992933704e-09
 150 1.0173700183802009e-09
 151 -4.8958868905349824e-11
 152 -2.5722587134752629e-10
 153 -1.3398885157931559e-10
 154 -2.8675962001946828e-10
 155 4.2271995368290648e-05
Sym= A
Ene= -24.24675093054001
Spin= Alpha
Occup= 2
 1 -7.9228423635606905e-08
 2 4.2427921531597987e-07
 3 4.8718322135263049e-07
 4 6.1143783744684028e-07
 5 1.2465397935718115e-06
 6 2.0558810434104874e-06
 7 -2.9566354326331114e-06
 8 7.7826275169962743e-06
 9 -1.0150421104321295e-05
 10 2.9334448056139963e-06
 11 8.8809844309107122e-05
 12 -6.910193391092593e-05
 13 -2.0591035388639982e-05
 14 4.2316179146683757e-06
 15 -2.1107276443183838e-05
 16 -0.99501667408815853
 17 -0.02239017201449587
 18 0.0020020280120832011
 19 -0.00084159488785436119
 20 0.00024685133054725826
 21 1.1519954472270053e-11
 22 -1.5832903065549145e-10
 23 -3.6053266774260692e-11
 24 1.0251521359954965e-10
 25 1.3303269796838298e-10
 26 1.3151542648086345e-11
 27 -1.251484643799574e-10
 28 1.474667718165885e-10
 29 4.4070865395389701e-11
 30 -3.0555780067181205e-10
 31 1.7170613320971212e-08
 32 -1.5693825142595199e-07
 33 -3.7940232123649755e-07
 34 -8.1953560883629799e-08
 35 -2.1924548091269303e-07
 36 3.3976867120401187e-10
 37 -6.3553925560001125e-09
 38 -2.2629947443502465e-09
 39 4.6763095257204915e-09
 40 -1.0252879459076123e-08
 41 -2.4412202958549724e-10
 42 9.8575558997558332e-09
 43 -3.7413000450795814e-09
 44 6.3141568593428701e-09
 45 -1.670435216441404e-08
 46 -1.6501065460396252e-12
 47 2.3603576676776319e-10
 48 -9.1747315899469892e-11
 49 -4.0625639241656321e-11
 50 -2.3256072762670513e-10
 51 1.0058229591681775e-06
 52 -2.9054088993366645e-05
 53 1.0881311563873208e-05
 54 1.3591173578257119e-05
 55 8.9644436925554603e-06
 56 -5.8312048973354649e-07
 57 7.0490248453087757e-06
 58 3.0497147617916576e-06
 59 9.6202907593564654e-07
 60 3.2545422387235737e-06
 61 -8.5637686975235328e-06
 62 3.1422865961194779e-05
 63 2.4740218411969333e-06
 64 -7.0580176055328809e-05
 65 2.8809254411926969e-05
 66 1.1835566715509148e-05
 67 -0.00023291252664613612
 68 -0.00013744665624130313
 69 0.00010292648973027956
 70 -0.00016701424143192371
 71 9.401096220557417e-08
 72 -2.0901050260759501e-07
 73 -4.8826434608783085e-07
 74 -4.0410798197766069e-07
 75 -2.1710837512601132e-07
 76 4.6344744591784525e-09
 77 -3.9456230042145269e-08
 78 -2.0598516728201957e-08
 79 3.0818803386873543e-08
 80 3.8936582531741594e-08
 81 6.8495478508408315e-09
 82 -1.1846835036391906e-07
 83 -4.1536486792046578e-08
 84 2.7031582833591374e-08
 85 1.13405525053423e-07
 86 2.1160550814561014e-07
 87 -4.8763049924799768e-07
 88 -6.128342909821119e-07
 89 -1.122600141724199e-06
 90 -1.1856403500259274e-06
 91 1.3782819476311807e-10
 92 -4.4736387000668576e-09
 93 4.9608196659685384e-10
 94 -4.5266271957353339e-09
 95 2.204497087068345e-09
 96 -0.00048368202917557567
 97 0.0041714788600007574
 98 0.0025272950067599695
 99 0.00014495088526008892
 100 0.0020825229064143727
 101 5.6603689412238313e-09
 102 -1.8101233500756043e-07
 103 1.0561861278051461e-07
 104 -8.1026949632239476e-08
 105 2.0241950013424897e-07
 106 9.0262281348832855e-11
 107 5.0261323105333599e-09
 108 1.127967303424592e-09
 109 4.2279586887033333e-09
 110 -2.4252159212458776e-09
 111 -9.8940386138393163e-10
 112 2.156322250810135e-08
 113 5.7848734736364837e-09
 114 7.93626218774185e-09
 115 -1.6406520241148095e-08
 116 -2.6421170409360277e-11
 117 1.2984623061798585e-09
 118 1.0917352514217367e-10
 119 -9.3069020519428477e-10
 120 -7.0659425785403706e-10
 121 1.8132254527752009e-08
 122 -1.8430113928715706e-07
 123 -1.0987174894298409e-07
 124 -4.5022921808060726e-10
 125 1.9193004044141745e-08
 126 4.6431211415240114e-11
 127 1.0910364357776967e-09
 128 -2.5871840134506113e-09
 129 5.2487316928146928e-10
 130 1.0374993340796336e-09
 131 3.1961635739213744e-10
 132 -4.1204016369112843e-09
 133 -9.991152579059947e-10
 134 2.8032827209869336e-09
 135 2.2918949434358879e-09
 136 7.4869811005188994e-05
 137 -1.0080460870167068e-06
 138 -5.7777264898560297e-07
 139 2.1811040980429311e-05
 140 -9.6246539638780777e-05
 141 -2.7562645614936049e-06
 142 -0.00039999608026800021
 143 -0.00030900970487320143
 144 -3.7474507716858287e-10
 145 -1.1581915036615736e-06
 146 3.1402275530249124e-06
 147 0.00013032327912712439
 148 4.1210071367905126e-07
 149 3.217163470295181e-08
 150 1.1722610231313139e-08
 151 -9.5468386757365668e-10
 152 4.7680255774800169e-10
 153 -3.5843586158536801e-09
 154 -8.7228019638168995e-11
 155 0.0048101226496451771
Sym= A
Ene= -23.790128982996052
Spin= Alpha
Occup= 2
 1 1.1866409026796659e-06
 2 -3.0346098601472335e-05
 3 -4.504957417968866e-05
 4 -1.4451016579632611e-05
 5 1.6771415047519244e-05
 6 0.99500820732827955
 7 0.022440255656473496
 8 0.0010699148420301226
 9 0.0020974481085795659
 10 0.00056390652936798638
 11 -3.8280848981702864e-05
 12 5.66485103298617e-05
 13 -3.898885742111127e-05
 14 -7.9372096135150579e-06
 15 -5.9927691686561174e-05
 16 3.9885994211791167e-06
 17 -8.555595358961358e-06
 18 5.5856832576488233e-06
 19 2.0887495184314992e-06
 20 1.3373131305243942e-06
 21 -2.0195618039434741e-10
 22 3.2185555620988692e-09
 23 1.5626801363377042e-09
 24 -2.022226808121846e-10
 25 -9.7239884560044937e-10
 26 1.8568980640735268e-11
 27 -2.0322595670632376e-10
 28 5.7311965823116963e-09
 29 -6.3176246536493486e-11
 30 2.9863181130408496e-10
 31 1.9233989024591149e-07
 32 -2.1352447067683305e-06
 33 -9.5946069096252102e-07
 34 -2.725934101007251e-06
 35 3.1401030174487314e-06
 36 -6.8257649916796786e-09
 37 1.1325875372451577e-07
 38 2.3823648018540485e-08
 39 -3.2773485416788005e-08
 40 -1.1781815886583086e-08
 41 -3.135256927123426e-09
 42 1.0179231287702369e-07
 43 -6.0616617396997043e-08
 44 1.4145352008207577e-07
 45 7.1494777578752061e-08
 46 -3.7483557042794291e-10
 47 3.2311367387078244e-09
 48 6.0816645327106638e-09
 49 -3.2672888382555638e-09
 50 -1.1937820542375321e-09
 51 -1.5436893360614281e-05
 52 0.00027692696580805206
 53 0.00014792265917032348
 54 -0.00010184065819866808
 55 -0.00012980195590612517
 56 -9.553512754167574e-06
 57 7.241973362808577e-05
 58 -9.9843371975570042e-07
 59 9.2383436143124859e-07
 60 -4.4475809106733785e-05
 61 0.00048418743304341787
 62 -0.004115145434756556
 63 -0.00076981339860068474
 64 0.0021566304908960583
 65 0.0023006420197679528
 66 -1.2662284130570854e-05
 67 0.00027163772342978014
 68 -5.8523376695024608e-05
 69 -8.3379176929853597e-05
 70 -0.00016484405459671594
 71 -2.1982516294138657e-07
 72 3.9909298661047431e-07
 73 5.0484372386807538e-07
 74 -3.6421508032330285e-07
 75 -7.1401387959969225e-07
 76 -4.6756563789602958e-08
 77 7.3553633240208375e-07
 78 2.9277788327799383e-07
 79 -2.5970447468328269e-07
 80 1.9244690262363263e-07
 81 -3.5888136470470726e-08
 82 3.2972566482684706e-07
 83 3.1694804705224811e-07
 84 -1.9798790180219721e-07
 85 6.8026833150993596e-09
 86 -2.2237769341313729e-06
 87 1.7406059058440141e-05
 88 1.2345565218893554e-05
 89 3.7344932525537072e-06
 90 -5.6588964265961965e-06
 91 1.9035076654050753e-08
 92 -1.4753818717695998e-07
 93 -1.4681323568894434e-07
 94 5.7340957964290749e-08
 95 -2.1900288170034307e-08
 96 -1.1015524173991115e-05
 97 8.2794576876778003e-05
 98 2.0416551959048981e-06
 99 -4.4618946267624078e-05
 100 -1.0729929857430287e-05
 101 1.6055863070666722e-08
 102 1.9829561782450233e-07
 103 -1.0133624619121797e-06
 104 5.356551415685801e-07
 105 4.5521844871864293e-07
 106 -9.9478834320476074e-09
 107 -5.4565471945077607e-08
 108 8.5223130683308576e-08
 109 8.5668166408941032e-09
 110 -3.8593415716348367e-08
 111 -8.5433748027494999e-09
 112 -1.8209361902216758e-07
 113 -1.1712415395524662e-07
 114 1.3734429706652219e-07
 115 1.6726301336972034e-08
 116 1.2727406298157308e-09
 117 -2.3842719634748763e-08
 118 -9.3781946784249944e-10
 119 1.7918482652463342e-08
 120 5.6689525922097015e-09
 121 -1.1128043302312015e-08
 122 1.3372154546709141e-08
 123 -4.198509949214062e-07
 124 3.6569034741997236e-07
 125 1.1206972233970086e-07
 126 -4.2926500269160676e-09
 127 5.5192037805478117e-08
 128 1.6214594769664987e-08
 129 2.6194304678217739e-08
 130 -8.8660544907410371e-09
 131 5.4414659398500325e-09
 132 -7.6517523711363019e-08
 133 -4.1641344985964091e-08
 134 4.3443799793467021e-08
 135 -9.8772967120480362e-09
 136 -6.4148796597063022e-05
 137 -1.1760172675490284e-05
 138 -0.00015059175230831872
 139 0.00044945411922388837
 140 -8.0906848022081079e-05
 141 -2.8720631416369676e-05
 142 -3.6203173758777149e-06
 143 -0.00017845272186147471
 144 5.5588303064977037e-08
 145 -5.6604455254820692e-06
 146 -0.0049926564476190849
 147 2.4295621437943273e-05
 148 1.339044899813271e-06
 149 4.9191949884652223e-08
 150 4.522766079440602e-08
 151 -2.9695042820214042e-09
 152 -4.9048719732221052e-09
 153 -7.066665842722756e-09
 154 5.8413254153233975e-10
 155 4.643433420752189e-06
Sym= A
Ene= -21.622245059093
Spin= Alpha
Occup= 2
 1 0.99476242222645028
 2 0.023430674577880627
 3 0.0016313070515309419
 4 -0.0024895691980818492
 5 -0.00063631165170417237
 6 1.5942830292510039e-05
 7 -5.7882700316430558e-05
 8 5.7918918341513237e-05
 9 9.4423602575580183e-06
 10 -2.9552990782617195e-05
 11 3.8549662975291063e-06
 12 -2.1988446279370148e-05
 13 5.4342103069115179e-06
 14 3.4325840602840764e-06
 15 -1.1463340699934257e-05
 16 4.2519031723813007e-07
 17 -1.5861410292725543e-06
 18 5.9485597631920308e-07
 19 -1.5817176417389458e-06
 20 -3.1242173972702687e-06
 21 -2.9147923453657379e-09
 22 8.8714424206659243e-08
 23 5.721603056585249e-08
 24 3.737182192086614e-08
 25 1.5340793248295527e-08
 26 4.6340472486099549e-09
 27 -6.087084766021916e-08
 28 1.4592770915697435e-08
 29 3.9145311886175101e-08
 30 -5.8113383880451559e-08
 31 -1.1352442958029779e-05
 32 4.9450073386171539e-05
 33 3.7850472405341609e-05
 34 -8.1216020958581587e-06
 35 5.967139828410141e-05
 36 9.3933599793401283e-08
 37 -7.5195128576155659e-07
 38 -1.3322848947474601e-08
 39 -1.7442036539809172e-07
 40 1.9056076781415887e-07
 41 -4.170687659145747e-07
 42 1.3594737890360897e-06
 43 2.9271679061217463e-07
 44 2.3724292961272268e-06
 45 8.2422681879509909e-07
 46 1.9464793215985391e-08
 47 -1.7126482340529368e-07
 48 -4.8765586541363091e-08
 49 5.9799752530240276e-08
 50 -8.1421147785726227e-08
 51 0.0005543010210559429
 52 -0.0047303056066206805
 53 0.0004502046382781795
 54 -0.0024488691977185939
 55 -0.0027952380574016011
 56 -1.3550542102517878e-05
 57 0.00023882783175260683
 58 1.2977288238438271e-05
 59 0.0001559100730971154
 60 0.00019336965620294087
 61 -2.1495580921948522e-05
 62 0.00040324985381399081
 63 -0.00020375678500699992
 64 5.0426090384862844e-05
 65 0.00015443113584602905
 66 -1.381869354426662e-05
 67 0.00012722076758507137
 68 2.8700200962966218e-05
 69 4.0959614861200866e-05
 70 6.2914270829806553e-05
 71 -5.2035259589091075e-06
 72 1.9472661330739285e-05
 73 1.3781589892792381e-05
 74 2.6636033260130111e-06
 75 2.0204098033849059e-05
 76 -5.3383774725460745e-06
 77 2.8191856573093222e-05
 78 5.4876332350295269e-06
 79 -3.9104020974361205e-06
 80 2.1088631259493458e-05
 81 1.1089828400209423e-07
 82 -1.4824441313245852e-06
 83 -2.4132191895332675e-06
 84 -3.4632523102489204e-07
 85 -1.1747182009725765e-06
 86 -9.1601395080797424e-07
 87 1.6781717249442227e-05
 88 1.342425807358857e-05
 89 -8.6419965867953171e-06
 90 -1.3345672666354204e-05
 91 3.4774766342832685e-07
 92 -6.3142299013952251e-06
 93 -4.6489306428689165e-06
 94 -1.3748939283007352e-06
 95 2.1780309753908341e-06
 96 -1.8162191709980172e-06
 97 7.0114782653428562e-07
 98 -1.6762419399871257e-05
 99 7.3429255390486104e-07
 100 5.1171688141554107e-06
 101 1.3283819006485683e-07
 102 -2.3065543901333467e-06
 103 -9.169045607412707e-07
 104 -9.0823005552338908e-07
 105 1.2504865475365059e-06
 106 -7.7491160158812037e-09
 107 -3.0619075641204787e-08
 108 3.0757104833244903e-07
 109 -3.4007307846371292e-08
 110 -5.6340673873312892e-08
 111 -2.2547424777617293e-08
 112 -1.7467276037361676e-08
 113 -4.0622760965847373e-08
 114 2.7751025594374947e-07
 115 -1.4250641922931308e-07
 116 2.3912767946830927e-08
 117 -4.1903906813531959e-08
 118 1.4609223506195367e-07
 119 3.4899514659784653e-07
 120 -3.8215205726245196e-07
 121 -4.9125763773308424e-08
 122 2.6210969460324548e-10
 123 -4.902322061674703e-07
 124 8.6476672916070605e-07
 125 -5.8026627730417796e-08
 126 -4.9462868405094e-09
 127 7.798601647581553e-08
 128 6.4400240214080508e-09
 129 4.5556563919140331e-08
 130 5.8202257089775088e-09
 131 3.639217278303902e-08
 132 -7.9451940678145064e-07
 133 -3.6935566925689523e-07
 134 5.246347556049324e-07
 135 2.8210575716764396e-07
 136 0.00048788016153824431
 137 -5.7872098126725032e-05
 138 -2.3066312793545543e-05
 139 -6.7248747479342546e-05
 140 -0.0003160097797570459
 141 -7.213020203680588e-05
 142 7.3548665507558633e-07
 143 -1.9681842188341866e-06
 144 9.7585786369375665e-08
 145 -0.0044373121304959323
 146 -6.9608406771474299e-06
 147 1.3427068215413563e-05
 148 2.4817371107700703e-06
 149 9.9507538832378336e-08
 150 9.527140876601028e-08
 151 -9.5930323232513346e-09
 152 -3.0501943548374159e-10
 153 -1.0466586965297033e-08
 154 -1.8546931352689407e-08
 155 9.5675326507862269e-06
Sym= A
Ene= -19.345740047787039
Spin= Alpha
Occup= 2
 1 2.4410743251371642e-08
 2 -6.2332559939550169e-08
 3 8.3900601926643337e-08
 4 -1.2866704157219498e-08
 5 4.7746115432869851e-08
 6 -2.0531777485256313e-10
 7 3.1322762237239729e-09
 8 6.0128604561489257e-09
 9 8.5798445557118213e-10
 10 7.3890650245976683e-10
 11 5.3173090133204023e-10
 12 -3.0226555352924278e-09
 13 1.6665805289977343e-09
 14 -6.6118358798638271e-10
 15 1.2106403901875621e-09
 16 -1.023102790946127e-11
 17 -8.1044722731062998e-12
 18 3.7424714862208714e-12
 19 2.107886660146138e-10
 20 -1.9823157898048429e-10
 21 -7.4075853703784798e-06
 22 -2.720241232394945e-05
 23 -1.1746997460006864e-05
 24 -2.9907042537914406e-06
 25 4.8596942182554891e-06
 26 0.99405272773082032
 27 0.026814137069589936
 28 -0.00057407221050060318
 29 -0.0025161135031988354
 30 0.00060998279933786295
 31 1.442638863746646e-06
 32 -2.1046192487996454e-05
 33 7.3252699451176915e-06
 34 -1.0545381616039096e-05
 35 -1.0857835518971538e-06
 36 1.3418949544159979e-06
 37 -1.8732369122239318e-05
 38 -2.142643553835473e-06
 39 -1.0488957975829042e-05
 40 2.3310841302878322e-06
 41 -2.3394751398210257e-05
 42 0.00038625133168438986
 43 7.7872667035348223e-05
 44 0.00038163763655432872
 45 -8.0282757106681711e-05
 46 -3.1692598630812802e-05
 47 0.00045148619313947373
 48 5.4384435338463134e-05
 49 0.00041643685410901172
 50 -7.6167548667013276e-05
 51 -8.7230008927650334e-09
 52 1.6479071403469206e-09
 53 -1.5929788159566018e-08
 54 1.1877133489681791e-07
 55 5.8493652309981894e-08
 56 -1.2478466244921729e-07
 57 2.8581268409080496e-06
 58 1.1025222405578703e-06
 59 1.4088196490393927e-06
 60 -1.4303377628079276e-06
 61 5.6841939254810006e-09
 62 -1.0185248434450733e-07
 63 -7.4197732336146806e-08
 64 -4.8683812652500469e-08
 65 -4.1738708254321295e-09
 66 -1.6175889740626148e-09
 67 2.4423446042005502e-08
 68 -7.8417073081240776e-09
 69 -9.6461908888041258e-09
 70 -1.1865433287746821e-08
 71 7.3600607108377458e-08
 72 -7.7150518071163779e-07
 73 -6.1513143458448401e-07
 74 -7.9012207532501969e-08
 75 2.2888870789841079e-07
 76 6.1968365893974306e-06
 77 1.9371444131520336e-06
 78 6.2205917171953489e-05
 79 -2.1430143076852239e-05
 80 -1.9821778759373037e-05
 81 5.8750183982074479e-08
 82 -5.1072287314821859e-07
 83 2.923085724319218e-07
 84 2.9102443807943779e-07
 85 -1.5115182838406892e-07
 86 -1.09613355509601e-08
 87 2.3133678861028224e-07
 88 -1.0895390585215422e-07
 89 7.7352388125341402e-08
 90 3.4035092177156573e-08
 91 4.0120526207678749e-06
 92 8.7059066435377257e-06
 93 -1.0152308281195632e-05
 94 -4.1495291952184259e-05
 95 9.5327497860423468e-06
 96 2.8477178064017783e-10
 97 -3.6736236544814076e-09
 98 3.7602644374027277e-10
 99 -1.9911733614787685e-09
 100 2.1775083051732353e-09
 101 2.523416321497446e-09
 102 -2.6640449935811241e-08
 103 7.6543246429673257e-09
 104 -2.0430975049328507e-08
 105 -9.6095377273632682e-10
 106 -9.3644049154288428e-09
 107 1.9728350549144456e-07
 108 1.121681197876361e-07
 109 3.4479519232521639e-08
 110 -4.5974031467424695e-08
 111 2.3952537100597404e-09
 112 -4.2861971110352191e-08
 113 1.201992099659689e-08
 114 -2.642797726368796e-08
 115 -1.121467205889448e-09
 116 6.1277283450826539e-06
 117 5.3300568367828309e-06
 118 -6.8263163074876594e-05
 119 1.6923343428056762e-05